################################################################################
# Symmetry function scaling data.
################################################################################
# Col  Name     Description
################################################################################
# 1    e_index  Element index.
# 2    sf_index Symmetry function index.
# 3    sf_min   Symmetry function minimum.
# 4    sf_max   Symmetry function maximum.
# 5    sf_mean  Symmetry function mean.
# 6    sf_sigma Symmetry function sigma.
#########################################################################################################################
#        1          2                        3                        4                        5                        6
#  e_index   sf_index                   sf_min                   sf_max                  sf_mean                 sf_sigma
#########################################################################################################################
         1          1   0.0000000000000000E+00   2.1585357821193661E+01   4.1597953977912034E+00   4.6682844022442760E+00
         1          2   0.0000000000000000E+00   1.1234703365361359E+01   5.6718090377637109E+00   3.4841759948783317E+00
         1          3   0.0000000000000000E+00   1.8726706845048255E+01   3.5916714490524804E+00   4.0995545065206009E+00
         1          4   0.0000000000000000E+00   9.7998893565576850E+00   4.9406033148760837E+00   3.0441003102179169E+00
         1          5   0.0000000000000000E+00   1.4389399251779428E+01   2.7348852864675619E+00   3.2269155690018185E+00
         1          6   0.0000000000000000E+00   7.6345366105237318E+00   3.8331180405068004E+00   2.3748004057494132E+00
         1          7   0.0000000000000000E+00   9.4838701115846042E+00   1.7787189275198680E+00   2.2171262903967341E+00
         1          8   0.0000000000000000E+00   5.2125744027807475E+00   2.5765418856426949E+00   1.6098277799936620E+00
         1          9   0.0000000000000000E+00   5.1449843146008893E+00   9.5585316982704704E-01   1.2869970750981923E+00
         1         10   0.0000000000000000E+00   3.0952803189430700E+00   1.4330060951420633E+00   9.0553002326934440E-01
         1         11   0.0000000000000000E+00   2.1670934752937483E+00   4.1252669867909031E-01   6.0361997356747099E-01
         1         12   0.0000000000000000E+00   1.5808044577752556E+00   5.7634957534218134E-01   3.7014510251524491E-01
         1         13   0.0000000000000000E+00   7.6010037239770900E-01   1.4280903981176316E-01   2.2032641791008223E-01
         1         14   0.0000000000000000E+00   6.6060189337409803E-01   1.2726417126095266E-01   8.5393420686408872E-02
         1         15   0.0000000000000000E+00   3.2502667170502730E-01   3.2480967276999992E-02   5.1684362469467962E-02
         1         16   0.0000000000000000E+00   1.9208948498284406E-01   1.0385356713976283E-02   8.5095134234417589E-03
         1         17   0.0000000000000000E+00   6.5261222851219913E-01   6.4119872638764716E-02   1.0501994356117647E-01
         1         18   0.0000000000000000E+00   1.7657905674681604E-01   5.8699280717075704E-03   1.0783952508691522E-02
         1         19   0.0000000000000000E+00   3.8384083169605976E-01   4.7492059916012470E-02   3.3404307070130472E-02
         1         20   0.0000000000000000E+00   1.7024237978240619E+00   1.6073206640326068E-01   2.6410835548420580E-01
         1         21   0.0000000000000000E+00   3.4365042884850361E-01   2.7209980384119335E-02   3.6811579773330966E-02
         1         22   0.0000000000000000E+00   4.5767033847460259E-01   7.1565018762854316E-02   5.0485258428027972E-02
         1         23   0.0000000000000000E+00   7.0827000414995317E-02   8.8311534500129484E-03   1.4369554472464024E-02
         1         24   0.0000000000000000E+00   2.5105299323143190E-02   1.1562997191080818E-04   6.9793345833225483E-04
         1         25   0.0000000000000000E+00   4.5761539770643005E-02   1.9019843342826487E-03   1.7363011513578128E-03
         1         26   0.0000000000000000E+00   7.8007477139474113E-01   8.5465897136931854E-02   1.3731264456754402E-01
         1         27   0.0000000000000000E+00   1.1848170504159132E-01   1.2209793892972439E-02   1.4929105498309177E-02
         1         28   0.0000000000000000E+00   2.0677273546849548E-01   9.1241211294650730E-03   7.3982965561192465E-03
         1         29   0.0000000000000000E+00   1.3717502345322686E+02   1.1761396651588713E+01   2.2712076022545929E+01
         1         30   0.0000000000000000E+00   2.0722148791120812E+01   4.8277500228621495E+00   4.1323551166403067E+00
         1         31   0.0000000000000000E+00   3.7813777330668316E+01   1.3219190888171983E+01   8.7739953500804475E+00
         1         32   0.0000000000000000E+00   1.2990535679620348E+02   1.0522809019621047E+01   2.1079841131247488E+01
         1         33   0.0000000000000000E+00   2.0739161201672434E+01   4.7827536061676614E+00   4.0652911371977307E+00
         1         34   0.0000000000000000E+00   3.3716628766238884E+01   1.1275199903232121E+01   7.4627789558202311E+00
         1         35   0.0000000000000000E+00   3.8950646888061520E+01   3.9391511741084413E+00   6.7971030588497507E+00
         1         36   0.0000000000000000E+00   6.0055163187903178E+00   1.3269753003644382E+00   1.1843688998070152E+00
         1         37   0.0000000000000000E+00   1.0697980659993332E+01   3.8047768926787877E+00   2.5345979897621862E+00
         1         38   0.0000000000000000E+00   3.2539146211840396E+01   2.9226919791733543E+00   5.3530397535600187E+00
         1         39   0.0000000000000000E+00   5.7902779481030890E+00   1.2799005940005768E+00   1.1266335086207380E+00
         1         40   0.0000000000000000E+00   7.2630443406286913E+00   1.9793064554888435E+00   1.3267578447638382E+00
         1         41   0.0000000000000000E+00   2.8888005076059926E+01   2.6649279241510571E+00   4.7996140582842646E+00
         1         42   0.0000000000000000E+00   5.6829546983384676E+00   7.0550161051713367E-01   7.1700597104651687E-01
         1         43   0.0000000000000000E+00   9.1761895029341964E+00   3.0464092638175324E+00   2.0230733847141824E+00
         1         44   0.0000000000000000E+00   2.6389795821084405E+01   2.2129333967597109E+00   4.1795919347596007E+00
         1         45   0.0000000000000000E+00   4.2506574150109762E+00   6.9660691804575792E-01   6.9770592465373582E-01
         1         46   0.0000000000000000E+00   7.4330498763199664E+00   2.3897871686180538E+00   1.5877178023155130E+00
         1         47   0.0000000000000000E+00   8.0241711797317716E+00   8.8743111292916022E-01   1.4529205323823964E+00
         1         48   0.0000000000000000E+00   1.7329579399467101E+00   1.9171268438186653E-01   1.9997334249343765E-01
         1         49   0.0000000000000000E+00   2.5149208296511376E+00   8.8898623979677427E-01   5.9285586617941044E-01
         1         50   0.0000000000000000E+00   6.2356840507509483E+00   6.0158675485888924E-01   1.0345353631491496E+00
         1         51   0.0000000000000000E+00   1.0414992606451325E+00   1.8257188863142632E-01   1.8355200944494909E-01
         1         52   0.0000000000000000E+00   1.2731325257838979E+00   2.9698034183435401E-01   2.0149360773336827E-01
         1         53   0.0000000000000000E+00   1.8295167053944543E+00   2.1321604856888543E-01   3.4422747835839473E-01
         1         54   0.0000000000000000E+00   6.7345728408046279E-01   1.4645247628229038E-02   2.9467616912974955E-02
         1         55   0.0000000000000000E+00   9.8927415778953820E-01   1.7408568594798327E-01   1.2049904451626593E-01
         1         56   0.0000000000000000E+00   1.3992959649761740E+00   1.2753885962874587E-01   2.1544715426885985E-01
         1         57   0.0000000000000000E+00   3.8238121578114725E-01   1.3793295615200065E-02   2.4296440008086145E-02
         1         58   0.0000000000000000E+00   6.5163948262956561E-01   1.2263154236961749E-01   8.4214644653893320E-02
         1         59   0.0000000000000000E+00   4.1462080169622589E-01   5.8045339349854348E-02   9.2227988329856431E-02
         1         60   0.0000000000000000E+00   2.2418040537699790E-01   3.8943243010432192E-03   8.8015635076799780E-03
         1         61   0.0000000000000000E+00   2.8852382017699557E-01   5.1955317420594310E-02   3.7199412520890145E-02
         1         62   0.0000000000000000E+00   2.6149797725789059E-01   2.5568146314973984E-02   4.1252793567752431E-02
         1         63   0.0000000000000000E+00   5.8273697347743014E-02   3.1783322214990971E-03   4.7193039138861432E-03
         1         64   0.0000000000000000E+00   8.8213087336188503E-02   8.5656715587809559E-03   6.2194744063282740E-03
         1         65   0.0000000000000000E+00   2.5057774669249988E-01   3.2850011948617350E-02   5.2736692536908741E-02
         1         66   0.0000000000000000E+00   7.7233981276971064E-02   5.6722745884181958E-04   2.6790927427811913E-03
         1         67   0.0000000000000000E+00   1.7861288779236251E-01   1.0674871603612562E-02   8.6356105479658742E-03
         1         68   0.0000000000000000E+00   2.5300835772869940E-01   1.4501151740252093E-02   2.3594580644211462E-02
         1         69   0.0000000000000000E+00   4.8510603606636733E-02   4.7093662168902907E-04   1.8446946020990002E-03
         1         70   0.0000000000000000E+00   1.1933923312378303E-01   7.1475614028039891E-03   5.5280736902526507E-03
         1         71   0.0000000000000000E+00   7.7168926845844005E-02   7.5701887744752967E-03   1.2584796616432555E-02
         1         72   0.0000000000000000E+00   4.4521982147394633E-02   1.5498412520864301E-04   9.3946794390057178E-04
         1         73   0.0000000000000000E+00   7.3922271045726351E-02   3.2479581603996857E-03   2.8467497512118219E-03
         1         74   0.0000000000000000E+00   4.7006679744035565E-02   1.2316329060913422E-03   2.0358228773066371E-03
         1         75   0.0000000000000000E+00   5.9446839263898495E-03   8.0884068370503656E-05   2.2930622898502102E-04
         1         76   0.0000000000000000E+00   1.1945998219764069E-02   3.9940802366636002E-04   3.2930489134756584E-04
         2          1   0.0000000000000000E+00   1.1115571893736993E+01   7.4596777715356555E-01   1.4457851902613097E+00
         2          2   0.0000000000000000E+00   1.6778029599487379E+01   1.1566569621895997E+01   1.6871964078682273E+00
         2          3   0.0000000000000000E+00   9.3797887091758714E+00   6.2103281348095085E-01   1.2134005450997196E+00
         2          4   0.0000000000000000E+00   1.3886030630363393E+01   9.4989995040398849E+00   1.3839468015890466E+00
         2          5   0.0000000000000000E+00   6.8937455647010752E+00   4.4779538477478897E-01   8.8917100180213116E-01
         2          6   0.0000000000000000E+00   9.8451125299483184E+00   6.6292068742596539E+00   9.7119092886696679E-01
         2          7   0.0000000000000000E+00   4.2970299570839083E+00   2.7578530898581033E-01   5.6276730191503033E-01
         2          8   0.0000000000000000E+00   5.7986060248958848E+00   3.7752296857958414E+00   5.7255279272767079E-01
         2          9   0.0000000000000000E+00   2.1791448912048703E+00   1.4249093948039859E-01   3.0176909487726067E-01
         2         10   0.0000000000000000E+00   2.7946908274601920E+00   1.6041653214458342E+00   2.7034650803792942E-01
         2         11   0.0000000000000000E+00   9.1123971321170782E-01   5.5163982194558904E-02   1.2126553826138961E-01
         2         12   0.0000000000000000E+00   1.2841109763902749E+00   3.9245610105491080E-01   8.2736526334049668E-02
         2         13   0.0000000000000000E+00   3.8254266925734071E-01   1.2029187691729065E-02   2.7619242744750850E-02
         2         14   0.0000000000000000E+00   4.4376816474407571E-01   3.4987838235822959E-02   1.1757642480072552E-02
         2         15   0.0000000000000000E+00   1.8109127039613468E-01   9.7518942555326039E-04   2.5835467665883934E-03
         2         16   0.0000000000000000E+00   1.3794682368295430E-01   6.5553658619306769E-04   1.1623929490704816E-03
         2         17  -1.2148148864349677E-26   1.3267232665855291E-01   1.3149689082660907E-03   5.2334776386908670E-03
         2         18  -9.2588654802602000E-25   3.3500235286549362E-01   7.7762528341761544E-03   1.7348955232413057E-02
         2         19   0.0000000000000000E+00   2.8680613131640725E-01   2.6802247518821414E-02   1.0423451061128058E-02
         2         20  -2.4158782116468489E-26   6.1659671668715299E-01   1.5842806879000006E-03   8.0368869959732327E-03
         2         21  -2.3260942037904890E-23   5.4264525688333742E-01   3.1690524328453117E-02   6.9523281603182371E-02
         2         22   0.0000000000000000E+00   3.4624785639569122E-01   7.8660350096839957E-02   2.9874725979732366E-02
         2         23  -5.0946333339332831E-29   1.9270666556498048E-02   1.2293738575117587E-04   4.7145056960421850E-04
         2         24  -2.0963437723603879E-29   6.2118737893789425E-02   1.6615970957409185E-04   4.3285489197965766E-04
         2         25   0.0000000000000000E+00   5.3519634836728842E-02   2.7362827507853893E-04   2.1917509518542261E-04
         2         26  -3.1513926948533275E-27   3.0315280196623801E-01   2.8374222416437887E-04   3.0386569363464837E-03
         2         27  -1.9368243089035601E-23   2.6290334849652458E-01   1.2860640983691458E-02   2.7906469090925447E-02
         2         28   0.0000000000000000E+00   1.1734912901977694E-01   2.1323797573360868E-02   8.3473521614603422E-03
         2         29  -1.7895398281699372E-16   3.5208389576157018E+01   8.2995683768131978E-01   2.1849007881230134E+00
         2         30  -2.1759028012100562E-16   6.2552481679816083E+01   5.4798918976376374E+00   1.0664331124453160E+01
         2         31   0.0000000000000000E+00   9.3160885822880374E+01   4.3899813711825942E+01   1.1713748168969223E+01
         2         32  -3.5588222765670211E-16   4.7148351291068352E+01   6.9407129514287103E-01   1.8680618540753697E+00
         2         33  -2.1555246103877431E-16   6.2523561647129370E+01   5.3761206690476797E+00   1.0514165094856585E+01
         2         34   0.0000000000000000E+00   8.7340442363188373E+01   4.0603325237383515E+01   1.0234913646694466E+01
         2         35  -7.5048876687299682E-19   7.0814638618786567E+00   2.3287905121728325E-01   6.3492746829367885E-01
         2         36  -6.2672472445518420E-17   1.8479741582206106E+01   1.5764397324927437E+00   3.0684647331267074E+00
         2         37   0.0000000000000000E+00   2.6671919586117028E+01   1.2499603348010872E+01   3.4905990553267112E+00
         2         38  -4.6423062514436205E-17   1.4321660364345558E+01   1.2494617603250811E-01   4.0703998685850384E-01
         2         39  -6.1384650148612039E-17   1.7455132315651966E+01   1.4664570942244430E+00   2.8883276873384172E+00
         2         40   0.0000000000000000E+00   2.0853154877817001E+01   9.0779446275005320E+00   2.3185770896374227E+00
         2         41  -1.0543209385314200E-18   4.8827073107075751E+00   1.2581556766663560E-01   3.5684292121333655E-01
         2         42  -6.9791676586516181E-19   8.9119396202987922E+00   6.8162622194726374E-01   1.3958720933200515E+00
         2         43   0.0000000000000000E+00   1.1533545056478415E+01   4.7893724177975372E+00   1.3672477213341503E+00
         2         44  -2.0967070883992398E-18   7.2194559862948946E+00   8.1547048451207332E-02   2.4372612802891205E-01
         2         45  -6.9428587206389948E-19   8.8821333970303655E+00   6.6138093878352899E-01   1.3639512457990741E+00
         2         46   0.0000000000000000E+00   1.0245321229568775E+01   4.1969783405234189E+00   1.1524554313624444E+00
         2         47  -4.4215613902040675E-21   1.4522387092879052E+00   3.8708932324905777E-02   1.1298055896085389E-01
         2         48  -2.0141553833359241E-19   2.5271318886569651E+00   1.9631338166727469E-01   4.0193830996839552E-01
         2         49   0.0000000000000000E+00   3.3296301606781236E+00   1.3698917845989318E+00   4.0542267283635619E-01
         2         50  -2.7350498753512669E-19   2.1628130095612725E+00   9.4087334713822569E-03   3.7703235774443712E-02
         2         51  -1.9949458436637766E-19   2.3619237689416548E+00   1.6889615757563392E-01   3.4993870608934846E-01
         2         52   0.0000000000000000E+00   2.0534819671758804E+00   7.6988988466470054E-01   2.1695743110680729E-01
         2         53  -2.1119102565189728E-24   3.4172646752070246E-01   5.5132804848784358E-03   1.8239012280305771E-02
         2         54  -5.3941236440734478E-25   5.7624650301438918E-01   1.5267161243671386E-02   3.3884248968362694E-02
         2         55   0.0000000000000000E+00   7.0492757774244330E-01   5.5928211601691265E-02   2.3354806655489811E-02
         2         56  -4.1999139380408173E-24   2.5704215956148135E-01   2.8242567516291008E-03   1.0486906192091149E-02
         2         57  -5.3659635723627837E-25   4.1065132826597162E-01   1.4080517753803310E-02   3.1528230330038813E-02
         2         58   0.0000000000000000E+00   4.2460787407996381E-01   4.6253559999559678E-02   1.8731048859032196E-02
         2         59  -8.8568295559103926E-27   1.2616465816837710E-01   1.7429377479181152E-03   6.0480910614134752E-03
         2         60  -1.5551857881332623E-25   1.4054006543444991E-01   4.4762032276221640E-03   1.0014742877697602E-02
         2         61   0.0000000000000000E+00   3.1459263861053610E-01   1.6301390226780760E-02   6.9907371962898640E-03
         2         62  -5.4785783652281511E-25   7.4532455191676936E-02   1.2342400438712612E-04   7.5119166492985761E-04
         2         63  -1.5366095124231695E-25   1.0538322655093313E-01   3.1589402842310873E-03   7.1537687223905064E-03
         2         64   0.0000000000000000E+00   4.1076667690120833E-02   6.6953531565058571E-03   2.7020048117762955E-03
         2         65  -1.1720225100397005E-30   3.0353653504869189E-02   3.1166579710177383E-04   1.1892985924090702E-03
         2         66  -1.2453227939667227E-31   1.7573348118629981E-01   3.9968124157907606E-04   1.1062477034283942E-03
         2         67   0.0000000000000000E+00   9.8829201033005881E-02   6.4011942058575966E-04   5.4005847220554653E-04
         2         68  -2.3307778635096093E-30   2.7464894817397920E-02   1.6059614114768980E-04   6.7696867722982128E-04
         2         69  -1.2280959234986180E-31   8.0181457613904772E-02   3.4721711148398001E-04   9.6484081156753357E-04
         2         70   0.0000000000000000E+00   5.0186089494156087E-02   5.0784628935760271E-04   3.7688113266645836E-04
         2         71  -4.9151726855201484E-33   2.2435245049959921E-02   9.3214753234092861E-05   3.8894495438417180E-04
         2         72  -3.5253389010284708E-32   4.5353847039629920E-02   1.1879902266618677E-04   3.1826987417438938E-04
         2         73   0.0000000000000000E+00   6.0694199074952812E-02   1.9103498265219811E-04   1.7711799168307942E-04
         2         74  -3.0403835329857035E-31   4.4987964409113276E-03   5.3792111849795436E-06   3.8799401456574587E-05
         2         75  -3.3982880264443263E-32   1.5550708484141900E-02   7.1948646533253634E-05   1.9002656156130588E-04
         2         76   0.0000000000000000E+00   2.5659522372706448E-03   6.3144847337226741E-05   4.2451362034306523E-05
